/*--------------------------------*- C++ -*----------------------------------*\
| =========                 |                                                 |
| \\      /  F ield         | OpenFOAM: The Open Source CFD Toolbox           |
|  \\    /   O peration     | Version:  3.0.x                                 |
|   \\  /    A nd           | Web:      www.OpenFOAM.org                      |
|    \\/     M anipulation  |                                                 |
\*---------------------------------------------------------------------------*/
FoamFile
{
    version     2.0;
    format      ascii;
    class       volScalarField;
    object      p;
}
// * * * * * * * * * * * * * * * * * * * * * * * * * * * * * * * * * * * * * //

dimensions      [0 2 -2 0 0 0 0];

internalField uniform 101325; // 1 atmosphere
//internalField uniform 0; // p is relative in incompressible solvers

boundaryField
{
    inlet
    {
        type            zeroGradient;
    }
    duct
    {
        type            zeroGradient;
    }
    outlet
    {
        type            fixedValue;
        value           $internalField;
    }
}

// ************************************************************************* //
